MMPS Description

          64  atoms
           1  atom types

         0 4.5722377 xlo xhi
         0 4.5722377 ylo yhi
         0 4.5722377 zlo zhi

Masses

  1  1.0080

Atoms

1 1 6.86153 16.4078 -2.80109
2 1 6.74762 15.5882 -4.30334
3 1 8.27704 18.4794 -2.29308
4 1 7.01422 18.6357 -4.10526
5 1 6.92366 17.0085 5.00873
6 1 7.75606 12.144 -8.16508
7 1 6.45676 13.8611 -0.0596657
8 1 5.52877 17.0508 -0.403523
9 1 11.6263 15.3407 -5.92611
10 1 5.12781 18.0017 1.67085
11 1 8.98303 15.3383 0.0555764
12 1 5.90241 17.2688 -2.01957
13 1 4.64211 14.0359 -0.116765
14 1 5.64464 15.3817 -0.568984
15 1 9.45771 16.1873 -1.14027
16 1 10.2473 17.6341 -0.685423
17 1 8.36354 18.3157 0.906605
18 1 10.2939 15.6486 -2.00499
19 1 7.86835 18.2767 -4.97022
20 1 4.33271 14.9549 -1.09609
21 1 12.1529 13.4684 0.999066
22 1 8.12234 14.8333 -3.16283
23 1 6.02094 18.4936 -1.8945
24 1 9.35956 12.9124 1.4439
25 1 5.40469 16.3763 1.33489
26 1 9.29072 13.2653 -1.11346
27 1 8.15795 18.9589 -0.393464
28 1 9.16856 19.9168 1.79091
29 1 12.0061 10.6499 0.390184
30 1 7.14067 12.585 1.8363
31 1 8.00559 15.5748 -2.03891
32 1 5.45363 14.7547 -3.26429
33 1 9.15585 20.5754 1.6708
34 1 6.92644 14.3506 -2.50401
35 1 7.5843 15.791 -2.55017
36 1 6.92216 14.6461 -1.16512
37 1 7.10398 17.2267 -0.217374
38 1 10.9447 16.2484 -0.733715
39 1 5.01408 15.113 -1.42067
40 1 8.90489 13.6512 -1.54618
41 1 8.41589 17.4267 -4.61083
42 1 5.14727 13.7231 0.439172
43 1 6.63948 16.4599 -1.44453
44 1 5.81377 16.5981 -3.86673
45 1 9.51059 15.8044 0.409404
46 1 7.65483 16.5267 -0.692898
47 1 5.71902 15.1629 0.735773
48 1 5.86317 14.7468 -0.811876
49 1 8.62098 14.824 0.82615
50 1 10.9678 20.1071 -2.29221
51 1 5.52848 18.8891 -2.25857
52 1 8.37783 17.1216 2.07107
53 1 7.42359 17.6712 -1.75946
54 1 6.95778 14.7927 -3.07085
55 1 3.51209 15.7047 -0.694499
56 1 6.36483 17.8998 -2.87793
57 1 11.461 17.91 3.20753
58 1 8.32269 16.2904 0.905803
59 1 8.45688 12.2822 2.73521
60 1 5.27726 16.9564 -1.98326
61 1 4.5328 21.8956 0.124947
62 1 8.30246 19.0366 -2.00157
63 1 6.10065 18.0022 1.05711
64 1 4.23868 16.4932 -0.746998
