MMPS Description

          64  atoms
           1  atom types

         0 4.5722377 xlo xhi
         0 4.5722377 ylo yhi
         0 4.5722377 zlo zhi

Masses

  1  1.0080

Atoms

1 1 2.80468 9.05783 3.56515
2 1 -1.12248 11.7725 7.7413
3 1 0.474428 13.5625 8.12582
4 1 1.19709 6.81138 4.79682
5 1 0.354778 14.613 8.67389
6 1 1.01507 10.4112 8.19445
7 1 3.18743 10.0978 9.91765
8 1 2.08409 14.4695 8.92267
9 1 1.82822 9.43984 5.30971
10 1 -0.913583 6.11878 4.3159
11 1 -1.33047 15.9906 4.79571
12 1 -1.2317 16.5263 10.6824
13 1 4.00821 12.7781 2.2602
14 1 -1.36715 12.5402 7.44908
15 1 -2.6324 16.0738 4.24019
16 1 -1.7896 11.855 8.40655
17 1 0.909716 10.3659 6.91076
18 1 -2.37958 12.1803 5.51685
19 1 1.59971 17.9346 8.47342
20 1 -1.37482 14.3437 6.77938
21 1 2.45321 11.4794 6.76317
22 1 -0.497476 14.1066 7.50457
23 1 -4.03507 11.1688 4.88891
24 1 -3.61797 16.5761 6.13122
25 1 4.17887 11.5763 6.73951
26 1 4.16326 10.7853 10.4224
27 1 -0.0763934 14.9466 9.99505
28 1 -6.01566 15.2056 7.75634
29 1 -0.617758 13.6048 5.34656
30 1 -0.558425 10.8773 7.19426
31 1 5.85112 17.0642 6.89691
32 1 -2.82011 10.4384 10.4583
33 1 4.82964 7.84902 7.0175
34 1 -1.45178 13.0286 10.987
35 1 -2.36476 15.1512 8.26188
36 1 -0.350904 11.8365 8.56327
37 1 -0.622479 8.90155 8.10136
38 1 -3.97245 11.9894 8.01623
39 1 1.1176 14.0922 7.43119
40 1 -2.95579 12.7719 9.52661
41 1 -0.0301719 9.94275 6.68688
42 1 -2.67299 11.1113 7.25289
43 1 1.38039 13.3127 10.7629
44 1 6.46931 14.5325 6.86052
45 1 3.40082 18.9158 9.08896
46 1 -1.67316 13.0473 8.98222
47 1 -2.41444 6.8618 14.5355
48 1 -2.32612 8.25206 6.82988
49 1 1.87255 12.2583 8.14794
50 1 0.0166736 10.6846 8.25914
51 1 -0.0419478 12.7078 8.62414
52 1 2.54677 13.5979 10.3582
53 1 0.90012 12.8892 9.0479
54 1 -2.29291 13.8687 7.38465
55 1 1.17625 10.9734 10.447
56 1 -0.565371 7.38279 10.0902
57 1 -1.35916 12.9135 5.12032
58 1 0.195113 7.97121 10.1318
59 1 1.07255 14.4891 9.57345
60 1 -4.18428 9.1829 4.79076
61 1 0.689618 13.9175 10.6256
62 1 -3.6328 11.2419 2.72905
63 1 -0.154814 8.87707 6.17939
64 1 2.70594 10.557 10.7417
