128
# CELL(abcABC):   10.23614    10.23614    10.23614    90.00000    90.00000    90.00000  Step:        7091  Bead:       0 positions{atomic_unit}  cell{atomic_unit}
H 10.2042 -12.9404 3.48808
H 5.26808 15.9162 5.84579
H 11.3809 6.33922 4.01972
H 16.2718 6.29078 -10.0094
H -8.28956 1.49091 -16.4033
H 21.4726 -0.555977 6.75902
H 21.3189 14.4894 13.1945
H 10.659 2.14997 -16.1945
H 14.9263 11.6146 1.32873
H -8.85039 -1.74489 0.726008
H 9.32811 4.54653 -0.619928
H 8.92975 2.7305 6.62874
H -6.25184 -4.17381 4.05946
H 13.0468 8.47736 0.843278
H 22.2024 26.4668 -7.80677
H 17.8929 22.4005 9.57865
H 16.7657 12.3202 22.768
H 8.86948 12.91 -17.5873
H 7.77798 5.93016 -26.4724
H 18.8855 -1.80987 -27.2849
H 3.43956 8.27026 -22.5141
H 2.62125 18.2545 -3.67384
H 18.6375 -4.5363 -8.86872
H 14.694 21.5245 -2.844
H 3.15563 9.12752 3.1228
H 0.0161681 4.16627 7.6132
H -2.70353 21.5366 6.03594
H 8.3758 1.11936 1.90612
H 13.2068 -16.7407 13.4222
H 29.2037 13.9783 -15.5015
H 13.9746 13.6206 -3.7295
H 14.804 15.8924 2.45903
H -4.69615 28.4463 -18.8771
H 6.04582 1.08851 -1.90544
H 0.971198 9.19042 -7.90736
H 10.8257 3.23986 -18.5815
H 21.9678 -7.03881 5.61249
H 1.16685 -0.326758 13.9111
H 11.0448 17.0523 -11.6309
H 13.0529 21.5465 -10.8604
H 16.3 14.4851 -8.28552
H 2.25594 7.55628 -16.9198
H 6.77734 9.09985 1.45633
H 8.6041 14.1409 -18.3597
H 18.2064 -5.67718 16.3314
H 11.1674 -3.40058 -9.26501
H -2.07733 9.93413 -11.9054
H 4.23561 -0.908762 11.8345
H 23.5371 0.270225 17.1819
H 17.116 5.58141 -1.3886
H 6.62183 7.30827 -38.6662
H 19.4525 18.2702 -10.3167
H 16.3183 1.94859 -3.7618
H 22.887 9.84777 5.58861
H 18.7474 -6.91805 0.41936
H 16.0631 18.2393 -16.6169
H -1.31286 18.1085 -1.88118
H 3.88012 0.883472 15.1355
H 2.77574 24.5149 -5.56912
H 13.153 8.6971 15.6217
H 25.2959 13.0643 0.398068
H 10.991 -4.3961 6.07905
H 30.1085 11.7904 0.583045
H 12.6792 5.48813 15.7605
H 15.5578 3.7698 -5.64389
H 9.64256 6.23498 -8.1111
H 17.5298 3.95768 -11.4165
H 13.831 20.8028 -1.70181
H 5.47604 5.00551 11.1425
H 8.76021 1.42463 -2.77364
H 6.63701 9.90757 -12.7803
H 24.721 10.6108 -7.4923
H 19.5173 -0.905965 7.80662
H 14.6757 12.4208 -4.87001
H 13.2641 -4.33685 1.21826
H 48.8883 -3.76129 -10.035
H 14.1112 3.68927 -2.18449
H 2.496 5.78527 -2.62524
H -3.11165 16.571 -3.48636
H 27.2689 23.7277 -23.4719
H 6.26096 0.608876 -16.5623
H -4.00004 5.40538 -16.9595
H 10.3495 1.87478 -1.02977
H 1.99833 4.42432 8.19461
H 10.3491 25.6604 4.96984
H 0.982112 11.3048 0.319495
H 21.6354 12.0878 2.22323
H 9.35943 9.85029 -4.72683
H 29.5136 -4.69251 7.18372
H -6.82084 12.6811 12.9776
H -0.721701 10.3035 12.4058
H 17.2819 20.1031 3.20304
H 15.3601 -6.16696 -3.16663
H 11.8514 -0.818127 8.1565
H -6.19473 -14.832 9.44297
H 25.4785 8.51485 9.92289
H 22.8129 2.45704 -12.6366
H 6.5805 -7.53818 11.3948
H 7.09549 -12.4297 -11.3081
H 11.3923 1.40609 -2.21356
H -13.6667 20.9124 0.191344
H 4.69016 9.86415 -24.9027
H 6.43357 -1.52709 6.70174
H -1.05992 5.46145 -6.40895
H -3.75649 2.94222 4.49352
H 18.741 1.65797 5.00856
H 39.2523 18.6642 -29.624
H -0.423567 -3.83438 -0.752308
H 12.5182 11.652 -9.04258
H 7.05954 -2.61682 4.35763
H 15.3357 23.2277 9.08253
H 9.57107 8.15935 -4.72624
H 20.2949 11.4349 5.38644
H 21.0873 13.4327 6.85238
H 5.39554 9.09848 -5.39825
H 24.7863 -4.45658 -13.1186
H 22.8219 6.95663 -11.4754
H 22.6521 13.4166 10.3708
H 5.16715 20.545 10.1478
H 41.0915 -0.691703 -0.399971
H 11.265 24.7368 -20.8412
H 4.16518 27.7237 -0.472764
H -4.16089 17.5715 7.9091
H 7.91629 28.8819 -14.3249
H 10.7003 7.66584 -3.81379
H 14.6933 6.88451 -4.91076
H 2.67461 14.9676 0.616289
H 14.7758 8.21931 -3.02357
